Single polymer chain of 5 units

7 atoms
4 bonds

3 atom types
2 bond types

0 2 xlo xhi
0 2 ylo yhi
0 7 zlo zhi

Atoms

1 1 1 0.5 0.5 0.5
2 1 2 0.5 0.5 1.5
3 1 2 0.5 0.5 2.5 
4 1 2 0.5 0.5 3.5
5 1 1 0.5 0.5 4.5
6 2 3 0.5 0.5 5.5
7 2 3 0.5 0.5 6.5

Bonds

1 2 1 2
2 2 2 3 
3 2 3 4 
4 2 4 5 

